<?xml version="1.0"?>
<VTKFile type="UnstructuredGrid" version="0.1" byte_order="LittleEndian">
  <UnstructuredGrid>
    <Piece NumberOfPoints="16471" NumberOfCells="16200">
      <Points>
        <DataArray type="Float64" NumberOfComponents="3" format="ascii">
          0 0 0
          0 0.3333333333333333 0
          0 0.6666666666666666 0
          0 1 0
          0 1.333333333333333 0
          0 1.666666666666667 0
          0 2 0
          0 2.333333333333333 0
          0 2.666666666666667 0
          0 3 0
          0 3.333333333333333 0
          0 3.666666666666667 0
          0 4 0
          0 4.333333333333333 0
          0 4.666666666666666 0
          0 5 0
          0 5.333333333333333 0
          0 5.666666666666666 0
          0 6 0
          0 6.333333333333333 0
          0 6.666666666666666 0
          0 7 0
          0 7.333333333333333 0
          0 7.666666666666666 0
          0 8 0
          0 8.333333333333332 0
          0 8.666666666666666 0
          0 9 0
          0 9.333333333333332 0
          0 9.666666666666666 0
          0 10 0
          0 10.33333333333333 0
          0 10.66666666666667 0
          0 11 0
          0 11.33333333333333 0
          0 11.66666666666667 0
          0 12 0
          0 12.33333333333333 0
          0 12.66666666666667 0
          0 13 0
          0 13.33333333333333 0
          0 13.66666666666667 0
          0 14 0
          0 14.33333333333333 0
          0 14.66666666666667 0
          0 15 0
          0 15.33333333333333 0
          0 15.66666666666667 0
          0 16 0
          0 16.33333333333333 0
          0 16.66666666666666 0
          0 17 0
          0 17.33333333333333 0
          0 17.66666666666666 0
          0 18 0
          0 18.33333333333333 0
          0 18.66666666666666 0
          0 19 0
          0 19.33333333333333 0
          0 19.66666666666666 0
          0 20 0
          0 20.33333333333333 0
          0 20.66666666666666 0
          0 21 0
          0 21.33333333333333 0
          0 21.66666666666666 0
          0 22 0
          0 22.33333333333333 0
          0 22.66666666666666 0
          0 23 0
          0 23.33333333333333 0
          0 23.66666666666666 0
          0 24 0
          0 24.33333333333333 0
          0 24.66666666666666 0
          0 25 0
          0 25.33333333333333 0
          0 25.66666666666666 0
          0 26 0
          0 26.33333333333333 0
          0 26.66666666666666 0
          0 27 0
          0 27.33333333333333 0
          0 27.66666666666666 0
          0 28 0
          0 28.33333333333333 0
          0 28.66666666666666 0
          0 29 0
          0 29.33333333333333 0
          0 29.66666666666666 0
          0 30 0
          0.3333333333333333 0 0
          0.3333333333333333 0.3333333333333333 0
          0.3333333333333333 0.6666666666666666 0
          0.3333333333333333 1 0
          0.3333333333333333 1.333333333333333 0
          0.3333333333333333 1.666666666666667 0
          0.3333333333333333 2 0
          0.3333333333333333 2.333333333333333 0
          0.3333333333333333 2.666666666666667 0
          0.3333333333333333 3 0
          0.3333333333333333 3.333333333333333 0
          0.3333333333333333 3.666666666666667 0
          0.3333333333333333 4 0
          0.3333333333333333 4.333333333333333 0
          0.3333333333333333 4.666666666666666 0
          0.3333333333333333 5 0
          0.3333333333333333 5.333333333333333 0
          0.3333333333333333 5.666666666666666 0
          0.3333333333333333 6 0
          0.3333333333333333 6.333333333333333 0
          0.3333333333333333 6.666666666666666 0
          0.3333333333333333 7 0
          0.3333333333333333 7.333333333333333 0
          0.3333333333333333 7.666666666666666 0
          0.3333333333333333 8 0
          0.3333333333333333 8.333333333333332 0
          0.3333333333333333 8.666666666666666 0
          0.3333333333333333 9 0
          0.3333333333333333 9.333333333333332 0
          0.3333333333333333 9.666666666666666 0
          0.3333333333333333 10 0
          0.3333333333333333 10.33333333333333 0
          0.3333333333333333 10.66666666666667 0
          0.3333333333333333 11 0
          0.3333333333333333 11.33333333333333 0
          0.3333333333333333 11.66666666666667 0
          0.3333333333333333 12 0
          0.3333333333333333 12.33333333333333 0
          0.3333333333333333 12.66666666666667 0
          0.3333333333333333 13 0
          0.3333333333333333 13.33333333333333 0
          0.3333333333333333 13.66666666666667 0
          0.3333333333333333 14 0
          0.3333333333333333 14.33333333333333 0
          0.3333333333333333 14.66666666666667 0
          0.3333333333333333 15 0
          0.3333333333333333 15.33333333333333 0
          0.3333333333333333 15.66666666666667 0
          0.3333333333333333 16 0
          0.3333333333333333 16.33333333333333 0
          0.3333333333333333 16.66666666666666 0
          0.3333333333333333 17 0
          0.3333333333333333 17.33333333333333 0
          0.3333333333333333 17.66666666666666 0
          0.3333333333333333 18 0
          0.3333333333333333 18.33333333333333 0
          0.3333333333333333 18.66666666666666 0
          0.3333333333333333 19 0
          0.3333333333333333 19.33333333333333 0
          0.3333333333333333 19.66666666666666 0
          0.3333333333333333 20 0
          0.3333333333333333 20.33333333333333 0
          0.3333333333333333 20.66666666666666 0
          0.3333333333333333 21 0
          0.3333333333333333 21.33333333333333 0
          0.3333333333333333 21.66666666666666 0
          0.3333333333333333 22 0
          0.3333333333333333 22.33333333333333 0
          0.3333333333333333 22.66666666666666 0
          0.3333333333333333 23 0
          0.3333333333333333 23.33333333333333 0
          0.3333333333333333 23.66666666666666 0
          0.3333333333333333 24 0
          0.3333333333333333 24.33333333333333 0
          0.3333333333333333 24.66666666666666 0
          0.3333333333333333 25 0
          0.3333333333333333 25.33333333333333 0
          0.3333333333333333 25.66666666666666 0
          0.3333333333333333 26 0
          0.3333333333333333 26.33333333333333 0
          0.3333333333333333 26.66666666666666 0
          0.3333333333333333 27 0
          0.3333333333333333 27.33333333333333 0
          0.3333333333333333 27.66666666666666 0
          0.3333333333333333 28 0
          0.3333333333333333 28.33333333333333 0
          0.3333333333333333 28.66666666666666 0
          0.3333333333333333 29 0
          0.3333333333333333 29.33333333333333 0
          0.3333333333333333 29.66666666666666 0
          0.3333333333333333 30 0
          0.6666666666666666 0 0
          0.6666666666666666 0.3333333333333333 0
          0.6666666666666666 0.6666666666666666 0
          0.6666666666666666 1 0
          0.6666666666666666 1.333333333333333 0
          0.6666666666666666 1.666666666666667 0
          0.6666666666666666 2 0
          0.6666666666666666 2.333333333333333 0
          0.6666666666666666 2.666666666666667 0
          0.6666666666666666 3 0
          0.6666666666666666 3.333333333333333 0
          0.6666666666666666 3.666666666666667 0
          0.6666666666666666 4 0
          0.6666666666666666 4.333333333333333 0
          0.6666666666666666 4.666666666666666 0
          0.6666666666666666 5 0
          0.6666666666666666 5.333333333333333 0
          0.6666666666666666 5.666666666666666 0
          0.6666666666666666 6 0
          0.6666666666666666 6.333333333333333 0
          0.6666666666666666 6.666666666666666 0
          0.6666666666666666 7 0
          0.6666666666666666 7.333333333333333 0
          0.6666666666666666 7.666666666666666 0
          0.6666666666666666 8 0
          0.6666666666666666 8.333333333333332 0
          0.6666666666666666 8.666666666666666 0
          0.6666666666666666 9 0
          0.6666666666666666 9.333333333333332 0
          0.6666666666666666 9.666666666666666 0
          0.6666666666666666 10 0
          0.6666666666666666 10.33333333333333 0
          0.6666666666666666 10.66666666666667 0
          0.6666666666666666 11 0
          0.6666666666666666 11.33333333333333 0
          0.6666666666666666 11.66666666666667 0
          0.6666666666666666 12 0
          0.6666666666666666 12.33333333333333 0
          0.6666666666666666 12.66666666666667 0
          0.6666666666666666 13 0
          0.6666666666666666 13.33333333333333 0
          0.6666666666666666 13.66666666666667 0
          0.6666666666666666 14 0
          0.6666666666666666 14.33333333333333 0
          0.6666666666666666 14.66666666666667 0
          0.6666666666666666 15 0
          0.6666666666666666 15.33333333333333 0
          0.6666666666666666 15.66666666666667 0
          0.6666666666666666 16 0
          0.6666666666666666 16.33333333333333 0
          0.6666666666666666 16.66666666666666 0
          0.6666666666666666 17 0
          0.6666666666666666 17.33333333333333 0
          0.6666666666666666 17.66666666666666 0
          0.6666666666666666 18 0
          0.6666666666666666 18.33333333333333 0
          0.6666666666666666 18.66666666666666 0
          0.6666666666666666 19 0
          0.6666666666666666 19.33333333333333 0
          0.6666666666666666 19.66666666666666 0
          0.6666666666666666 20 0
          0.6666666666666666 20.33333333333333 0
          0.6666666666666666 20.66666666666666 0
          0.6666666666666666 21 0
          0.6666666666666666 21.33333333333333 0
          0.6666666666666666 21.66666666666666 0
          0.6666666666666666 22 0
          0.6666666666666666 22.33333333333333 0
          0.6666666666666666 22.66666666666666 0
          0.6666666666666666 23 0
          0.6666666666666666 23.33333333333333 0
          0.6666666666666666 23.66666666666666 0
          0.6666666666666666 24 0
          0.6666666666666666 24.33333333333333 0
          0.6666666666666666 24.66666666666666 0
[...]
      <CellData Scalars="density">
        <DataArray type="Float64" Name="density" format="ascii">
          0.9924182295799255
          0.9904852509498596
          0.9880392551422119
          0.9849509596824646
          0.9810647368431091
          0.9761971831321716
          0.9701368808746338
          0.9626471400260925
          0.953472375869751
          0.9423487782478333
          0.9290209412574768
          0.9132623076438904
          0.8949006795883179
          0.8738449215888977
          0.8501080870628357
          0.8238261938095093
          0.7952631711959839
          0.7648060321807861
          0.7329419255256653
          0.7002267241477966
          0.66724693775177
          0.6345778107643127
          0.6027511358261108
          0.5722275972366333
          0.5433822274208069
          0.5164996385574341
          0.4917770624160767
          0.4693355560302734
          0.4492323696613312
          0.431474357843399
          0.416033923625946
          0.4028595983982086
          0.3918878734111786
          0.3830503225326538
          0.3762811422348022
          0.3715209066867828
          0.368719756603241
          0.3678396642208099
          0.3688549399375916
          0.371752917766571
          0.3765319287776947
          0.383200466632843
          0.3917743861675262
          0.402274876832962
          0.4147220849990845
          0.429131954908371
          0.4455092549324036
          0.4638413190841675
          0.4840900301933289
          0.5061834454536438
          0.5300095677375793
          0.5554078221321106
          0.5821689963340759
          0.6100284457206726
          0.6386744976043701
          0.6677526235580444
          0.6968795657157898
          0.7256603837013245
          0.7537068128585815
          0.7806570529937744
          0.8061941862106323
          0.8300617933273315
          0.8520721197128296
          0.8721097111701965
          0.890130341053009
          0.9061523675918579
          0.9202472567558289
          0.9325271248817444
          0.9431324005126953
          0.9522203207015991
          0.959954559803009
          0.9664978981018066
          0.9720056653022766
          0.9766223430633545
          0.9804788827896118
          0.9836919903755188
          0.9863637089729309
          0.9885826110839844
          0.9904240369796753
          0.9919520020484924
          0.9932208061218262
          0.9942748546600342
          0.995151698589325
          0.9958825707435608
          0.9964928030967712
          0.9970035552978516
          0.9974321722984314
          0.9977928996086121
          0.9980971217155457
          0.9983547329902649
          0.9925312995910645
          0.9906256794929504
          0.9882131218910217
          0.9851651787757874
          0.9813271760940552
          0.9765161275863647
          0.9705208539962769
          0.9631041884422302
          0.9540091753005981
          0.9429694414138794
          0.9297258257865906
          0.914046585559845
          0.895753026008606
          0.8747465014457703
          0.851033091545105
          0.8247412443161011
          0.7961304187774658
          0.7655839920043945
          0.7335892915725708
          0.70070481300354
          0.6675219535827637
          0.6346234679222107
          0.6025486588478088
          0.5717657208442688
          0.5426566600799561
          0.5155115127563477
          0.4905321896076202
          0.4678416550159454
          0.4474983215332031
          0.4295101761817932
          0.413847416639328
          0.4004583060741425
          0.3892770409584045
          0.3802331686019897
          0.3732587695121765
          0.368291974067688
          0.3652812838554382
          0.3641868829727173
          0.3649815320968628
          0.3676510453224182
          0.3721932768821716
          0.3786162734031677
          0.3869369328022003
          0.3971768915653229
          0.409358412027359
          0.4235013723373413
          0.4396143853664398
          0.4576907157897949
          0.4776985049247742
          0.4995750784873962
          0.5232163071632385
          0.5484726428985596
          0.5751432776451111
          0.6029732227325439
          0.6316573023796082
          0.660847008228302
          0.6901593804359436
          0.7191978096961975
          0.7475674748420715
          0.7748977541923523
          0.8008587956428528
          0.8251802325248718
          0.8476595878601074
          0.8681673407554626
          0.886646568775177
          0.903105616569519
          0.9176076054573059
          0.9302598237991333
          0.9412001371383667
          0.9505846500396729
          0.9585784077644348
          0.9653456211090088
          0.9710450172424316
          0.9758241176605225
          0.9798175096511841
          0.9831449389457703
          0.985912024974823
          0.9882096648216248
          0.9901163578033447
          0.9916980862617493
          0.9930107593536377
          0.9941011071205139
          0.9950077533721924
          0.9957629442214966
          0.9963932037353516
          0.9969204068183899
          0.9973625540733337
          0.9977344870567322
          0.998047947883606
          0.9983131885528564
          0.9926431775093079
          0.9907646775245667
          0.9883853197097778
          0.9853775501251221
          0.9815875887870789
          0.9768329262733459
          0.9709027409553528
          0.9635593891143799
          0.9545448422431946
          0.943589985370636
          0.930432140827179
          0.9148340821266174
          0.896611213684082
          0.8756570219993591
          0.8519700765609741
          0.8256723880767822
          0.7970171570777893
          0.766385018825531
          0.7342628240585327
          0.7012118697166443
          0.6678283214569092
          0.6347020268440247
          0.6023797392845154
          0.5713380575180054
          0.5419654250144958
          0.5145582556724548
          0.4893216490745544
          0.4663822650909424
          0.4457995891571045
          0.4275810718536377
          0.411697119474411
          0.3980941474437714
          0.3867042064666748
          0.3774552345275879
          0.3702769577503204
          0.3651051819324493
          0.361886739730835
          0.3605794608592987
          0.3611550033092499
          0.3635978698730469
          0.3679044544696808
          0.3740831911563873
          0.3821510076522827
          0.3921301066875458
          0.4040457308292389
          0.4179198145866394
          0.4337654411792755
          0.4515814483165741
          0.4713423252105713
          0.4929935038089752
          0.5164409875869751
          0.5415430068969727
          0.5681102871894836
          0.5958963632583618
          0.624604344367981
          0.6538894772529602
          0.6833730340003967
          0.7126559615135193
          0.7413384318351746
          0.7690399289131165
          0.7954196929931641
          0.8201925754547119
          0.8431419134140015
          0.8641231656074524
          0.8830662965774536
          0.899969220161438
          0.914886474609375
          0.9279199242591858
          0.9392037391662598
          0.9488932490348816
          0.957153856754303
          0.9641523957252502
          0.9700497984886169
          0.9749969840049744
          0.9791319966316223
          0.9825780987739563
          0.9854437112808228
          0.9878234267234802
          0.9897975325584412
          0.9914350509643555
          0.9927934408187866
          0.9939212799072266
          0.9948588609695435
          0.9956393241882324
          0.9962904453277588
          0.9968346357345581
          0.9972908496856689
          0.9976741671562195
          0.9979972243309021
          0.9982704520225525
          0.9927537441253662
          0.9909021854400635
          0.9885557889938354
          0.9855880737304688
          0.9818457961082458
          0.9771475195884705
          0.9712825417518616
          0.9640129208564758
          0.9550791382789612
          0.9442101716995239
          0.9311394095420837
          0.915624737739563
          0.8974747657775879
          0.8765761256217957
          0.8529193997383118
          0.8266190886497498
          0.7979234457015991
          0.7672093510627747
          0.7349628806114197
          0.7017480134963989
          0.6681660413742065
          0.6348133087158203
          0.6022447943687439
          0.570944607257843
          0.5413089394569397
          0.5136392116546631
          0.4881456792354584
          0.4649576544761658
          0.4441354870796204
          0.4256873726844788
          0.4095828533172607
          0.3957667350769043
          0.3841693699359894
          0.3747165501117706
          0.3673354685306549
          0.3619607090950012
          0.3585360646247864
          0.3570178151130676
          0.3573760390281677
          0.3595932126045227
          0.3636661469936371
          0.3696017861366272
          0.377417117357254
          0.3871358036994934
          0.3987843692302704
          0.4123878479003906
          0.4279637634754181
          0.4455147981643677
          0.4650234282016754
          0.4864420294761658
          0.5096853375434875
          0.5346224904060364
          0.5610734820365906
          0.5888013243675232
          0.6175172924995422
          0.6468836665153503
          0.6765235066413879
          0.7060374021530151
          0.7350205183029175
          0.763084888458252
          0.78987717628479
          0.8150989413261414
          0.8385178446769714
          0.8599755764007568
          0.879388153553009
          0.8967416882514954
          0.9120822548866272
          0.9255052208900452
          0.9371411800384521
          0.9471439719200134
          0.955679714679718
          0.9629167914390564
          0.9690187573432922
          0.9741398692131042
          0.9784215092658997
          0.9819903373718262
          0.9849584698677063
          0.9874229431152344
          0.9894672036170959
          0.9911624789237976
          0.9925683736801147
          0.9937353134155273
          0.9947047233581543
          0.9955114722251892
          0.9961840510368347
          0.9967460632324219
          0.9972168207168579
          0.9976120591163635
          0.9979450106620789
          0.9982262849807739
          0.9928630590438843
          0.9910381436347961
          0.9887244701385498
          0.9857965707778931
          0.9821019768714905
          0.9774599075317383
          0.9716601371765137
          0.9644644260406494
          0.9556121230125427
          0.9448300004005432
          0.9318476319313049
          0.9164182543754578
          0.8983438014984131
          0.877503514289856
          0.8538802266120911
          0.8275814056396484
          0.7988489270210266
          0.7680562734603882
          0.7356891632080078
          0.7023130059242249
          0.668534517288208
          0.6349573731422424
          0.6021435260772705
          0.5705857276916504
          0.5406868457794189
          0.512755274772644
          0.4870049357414246
          0.4635679125785828
          0.4425067603588104
          0.423829585313797
          0.4075047373771667
          0.3934760987758636
          0.3816722631454468
          0.3720167875289917
          0.3644347488880157
          0.3588581681251526
          0.3552291989326477
          0.3535017073154449
          0.353643923997879
          0.3556377589702606
          0.359478086233139
          0.3651716709136963
          0.3727357983589172
          0.382194310426712
          0.3935756087303162
          0.4069071412086487
          0.4222101271152496
          0.4394927322864532
          0.4587432146072388
          0.4799217581748962
          0.5029528141021729
          0.5277142524719238
          0.5540362000465393
          0.5816916227340698
          0.6104006767272949
          0.6398326754570007
          0.6696135997772217
          0.6993443965911865
          0.72861647605896
          0.7570338249206543
          0.7842320203781128
          0.8098990321159363
          0.8337874412536621
          0.8557239770889282
          0.8756105303764343
          0.8934213519096375
          0.9091929197311401
          0.9230138659477234
          0.9350107312202454
          0.9453355669975281
          0.9541544914245605
          0.9616373777389526
          0.9679506421089172
          0.9732516407966614
          0.9776850938796997
          0.9813812375068665
          0.984455406665802
          0.9870077967643738
          0.9891248941421509
          0.9908800721168518
          0.992335319519043
          0.9935426115989685
          0.9945454001426697
          0.9953793287277222
          0.9960741996765137
          0.9966545104980469
          0.9971402883529663
          0.99754798412323
          0.9978910684585571
          0.9981808662414551
          0.9929710030555725
          0.9911726713180542
          0.9888914823532104
          0.9860029816627502
          0.9823558926582336
          0.9777700901031494
          0.9720354676246643
          0.9649139046669006
          0.9561436176300049
          0.9454491138458252
          0.932556688785553
          0.9172142148017883
          0.8992177248001099
          0.8784388303756714
          0.8548526167869568
          0.8285587430000305
          0.7997933030128479
          0.7689260840415955
          0.7364411950111389
          0.7029070258140564
          0.6689344048500061
          0.6351338624954224
          0.6020761728286743
          0.5702611804008484
          0.5400995016098022
          0.5119056701660156
          0.4858986139297485
          0.4622132778167725
          0.4409129321575165
          0.4220065772533417
          0.4054624736309052
          0.3912222385406494
          0.3792130649089813
          0.3693562150001526
          0.3615746200084686
          0.355797678232193
          0.3519656956195831
          0.3500308394432068
          0.3499591648578644
          0.3517312109470367
          0.3553406894207001
          0.3607936203479767
          0.36810702085495
          0.3773061335086823
          0.388420045375824
          0.4014790654182434
          0.4165065288543701
          0.4335170388221741
          0.4525043070316315
          0.4734363555908203
          0.4962455630302429
          0.5208203792572021
          0.5470008254051208
          0.5745706558227539
          0.6032578349113464
          0.6327394247055054
          0.6626465320587158
          0.6925796866416931
          0.7221280336380005
          0.7508881092071533
          0.7784849405288696
          0.8045929670333862
          0.8289498686790466
          0.8513669967651367
          0.8717319369316101
          0.8900061845779419
          0.9062164425849915
          0.9204440116882324
          0.9328104853630066
          0.9434660077095032
          0.9525762796401978
          0.9603127837181091
          0.9668442606925964
          0.9723312258720398
          0.9769216775894165
          0.9807497262954712
          0.9839338660240173
          0.986577570438385
          0.9887701272964478
          0.9905874729156494
          0.9920939803123474
          0.9933432936668396
          0.9943804144859314
          0.9952425956726074
          0.9959607720375061
          0.9965599179267883
          0.9970613718032837
          0.9974818229675293
          0.997835636138916
          0.9981340765953064
          0.9930777549743652
          0.9913055896759033
          0.9890567660331726
          0.9862075448036194
          0.9826076626777649
          0.9780778288841248
          0.9724085927009583
          0.9653612375259399
          0.9566733837127686
          0.9460675120353699
          0.9332662224769592
          0.9180126786231995
          0.9000965356826782
          0.8793818950653076
          0.8558360934257507
          0.8295509815216064
          0.800756573677063
          0.7698180675506592
          0.7372190952301025
          0.7035295963287354
          0.6693652868270874
          0.6353432536125183
          0.6020422577857971
          0.5699706077575684
          0.5395471453666687
          0.5110909342765808
          0.4848271310329437
          0.4608927965164185
          0.4393540322780609
          0.4202192723751068
          0.403456062078476
          0.3890052437782288
          0.3767915070056915
          0.3667343556880951
          0.3587546050548553
          0.3527790606021881
          0.3487458825111389
          0.3466054797172546
          0.3463217318058014
          0.3478738963603973
          0.351254016160965
          0.3564677834510803
          0.3635322153568268
          0.3724720776081085
          0.3833185136318207
          0.3961030840873718
          0.410854160785675
          0.4275892376899719
          0.4463085830211639
          0.4669876098632812
          0.4895668029785156
          0.5139448642730713
          0.5399717688560486
          0.5674414038658142
          0.5960921049118042
          0.625607430934906
          0.6556247472763062
          0.6857456564903259
          0.7155574560165405
          0.7446492314338684
          0.772636890411377
          0.7991812229156494
          0.8240047097206116
          0.8469037413597107
          0.8677510023117065
          0.8864948749542236
          0.903151273727417
          0.9177936911582947
          0.930538535118103
          0.9415334463119507
          0.950943648815155
          0.9589415192604065
          0.9656982421875
          0.971377432346344
          0.9761305451393127
          0.9800950884819031
          0.9833931922912598
          0.9861316680908203
          0.9884024858474731
          0.9902843832969666
          0.9918438792228699
          0.9931368231773376
          0.9942097067832947
          0.9951012134552002
          0.9958432912826538
          0.9964622855186462
          0.996979832649231
          0.997413694858551
          0.9977782368659973
          0.9980858564376831
          0.9931831955909729
          0.9914370775222778
          0.9892202019691467
          0.9864100813865662
          0.9828572869300842
          0.9783833622932434
          0.9727792739868164
          0.9658064246177673
          0.9572014808654785
          0.9466849565505981
          0.9339760541915894
          0.9188132286071777
          0.9009798765182495
          0.8803324699401855
          0.8568302392959595
          0.8305578827857971
          0.8017381429672241
          0.7707325220108032
          0.7380228042602539
          0.7041808366775513
          0.6698269248008728
          0.6355853676795959
          0.6020424962043762
          0.5697149038314819
          0.5390293002128601
          0.5103110671043396
          0.4837905466556549
          0.4596077501773834
          0.4378302991390228
          0.4184673428535461
          0.4014853835105896
          0.3868246376514435
          0.3744075298309326
          0.3641514182090759
          0.3559746444225311
          0.3498023152351379
          0.3455695509910583
          0.3432253003120422
          0.3427315056324005
          0.3440652191638947
          0.3472179174423218
          0.3521943688392639
          0.3590106666088104
          0.3676924407482147
          0.3782711625099182
          0.390781581401825
          0.4052537083625793
          0.4217108190059662
          0.4401579201221466
          0.4605774581432343
          0.4829185903072357
          0.5070900917053223
          0.5329514741897583
          0.5603079199790955
          0.5889069437980652
          0.6184404492378235
          0.648551881313324
          0.6788456439971924
          0.7089069485664368