<?xml version="1.0"?>
<VTKFile type="UnstructuredGrid" version="0.1" byte_order="LittleEndian">
  <UnstructuredGrid>
    <Piece NumberOfPoints="16471" NumberOfCells="16200">
      <Points>
        <DataArray type="Float64" NumberOfComponents="3" format="ascii">
          0 0 0
          0 0.3333333333333333 0
          0 0.6666666666666666 0
          0 1 0
          0 1.333333333333333 0
          0 1.666666666666667 0
          0 2 0
          0 2.333333333333333 0
          0 2.666666666666667 0
          0 3 0
          0 3.333333333333333 0
          0 3.666666666666667 0
          0 4 0
          0 4.333333333333333 0
          0 4.666666666666666 0
          0 5 0
          0 5.333333333333333 0
          0 5.666666666666666 0
          0 6 0
          0 6.333333333333333 0
          0 6.666666666666666 0
          0 7 0
          0 7.333333333333333 0
          0 7.666666666666666 0
          0 8 0
          0 8.333333333333332 0
          0 8.666666666666666 0
          0 9 0
          0 9.333333333333332 0
          0 9.666666666666666 0
          0 10 0
          0 10.33333333333333 0
          0 10.66666666666667 0
          0 11 0
          0 11.33333333333333 0
          0 11.66666666666667 0
          0 12 0
          0 12.33333333333333 0
          0 12.66666666666667 0
          0 13 0
          0 13.33333333333333 0
          0 13.66666666666667 0
          0 14 0
          0 14.33333333333333 0
          0 14.66666666666667 0
          0 15 0
          0 15.33333333333333 0
          0 15.66666666666667 0
          0 16 0
          0 16.33333333333333 0
          0 16.66666666666666 0
          0 17 0
          0 17.33333333333333 0
          0 17.66666666666666 0
          0 18 0
          0 18.33333333333333 0
          0 18.66666666666666 0
          0 19 0
          0 19.33333333333333 0
          0 19.66666666666666 0
          0 20 0
          0 20.33333333333333 0
          0 20.66666666666666 0
          0 21 0
          0 21.33333333333333 0
          0 21.66666666666666 0
          0 22 0
          0 22.33333333333333 0
          0 22.66666666666666 0
          0 23 0
          0 23.33333333333333 0
          0 23.66666666666666 0
          0 24 0
          0 24.33333333333333 0
          0 24.66666666666666 0
          0 25 0
          0 25.33333333333333 0
          0 25.66666666666666 0
          0 26 0
          0 26.33333333333333 0
          0 26.66666666666666 0
          0 27 0
          0 27.33333333333333 0
          0 27.66666666666666 0
          0 28 0
          0 28.33333333333333 0
          0 28.66666666666666 0
          0 29 0
          0 29.33333333333333 0
          0 29.66666666666666 0
          0 30 0
          0.3333333333333333 0 0
          0.3333333333333333 0.3333333333333333 0
          0.3333333333333333 0.6666666666666666 0
          0.3333333333333333 1 0
          0.3333333333333333 1.333333333333333 0
          0.3333333333333333 1.666666666666667 0
          0.3333333333333333 2 0
          0.3333333333333333 2.333333333333333 0
          0.3333333333333333 2.666666666666667 0
          0.3333333333333333 3 0
          0.3333333333333333 3.333333333333333 0
          0.3333333333333333 3.666666666666667 0
          0.3333333333333333 4 0
          0.3333333333333333 4.333333333333333 0
          0.3333333333333333 4.666666666666666 0
          0.3333333333333333 5 0
          0.3333333333333333 5.333333333333333 0
          0.3333333333333333 5.666666666666666 0
          0.3333333333333333 6 0
          0.3333333333333333 6.333333333333333 0
          0.3333333333333333 6.666666666666666 0
          0.3333333333333333 7 0
          0.3333333333333333 7.333333333333333 0
          0.3333333333333333 7.666666666666666 0
          0.3333333333333333 8 0
          0.3333333333333333 8.333333333333332 0
          0.3333333333333333 8.666666666666666 0
          0.3333333333333333 9 0
          0.3333333333333333 9.333333333333332 0
          0.3333333333333333 9.666666666666666 0
          0.3333333333333333 10 0
          0.3333333333333333 10.33333333333333 0
          0.3333333333333333 10.66666666666667 0
          0.3333333333333333 11 0
          0.3333333333333333 11.33333333333333 0
          0.3333333333333333 11.66666666666667 0
          0.3333333333333333 12 0
          0.3333333333333333 12.33333333333333 0
          0.3333333333333333 12.66666666666667 0
          0.3333333333333333 13 0
          0.3333333333333333 13.33333333333333 0
          0.3333333333333333 13.66666666666667 0
          0.3333333333333333 14 0
          0.3333333333333333 14.33333333333333 0
          0.3333333333333333 14.66666666666667 0
          0.3333333333333333 15 0
          0.3333333333333333 15.33333333333333 0
          0.3333333333333333 15.66666666666667 0
          0.3333333333333333 16 0
          0.3333333333333333 16.33333333333333 0
          0.3333333333333333 16.66666666666666 0
          0.3333333333333333 17 0
          0.3333333333333333 17.33333333333333 0
          0.3333333333333333 17.66666666666666 0
          0.3333333333333333 18 0
          0.3333333333333333 18.33333333333333 0
          0.3333333333333333 18.66666666666666 0
          0.3333333333333333 19 0
          0.3333333333333333 19.33333333333333 0
          0.3333333333333333 19.66666666666666 0
          0.3333333333333333 20 0
          0.3333333333333333 20.33333333333333 0
          0.3333333333333333 20.66666666666666 0
          0.3333333333333333 21 0
          0.3333333333333333 21.33333333333333 0
          0.3333333333333333 21.66666666666666 0
          0.3333333333333333 22 0
          0.3333333333333333 22.33333333333333 0
          0.3333333333333333 22.66666666666666 0
          0.3333333333333333 23 0
          0.3333333333333333 23.33333333333333 0
          0.3333333333333333 23.66666666666666 0
          0.3333333333333333 24 0
          0.3333333333333333 24.33333333333333 0
          0.3333333333333333 24.66666666666666 0
          0.3333333333333333 25 0
          0.3333333333333333 25.33333333333333 0
          0.3333333333333333 25.66666666666666 0
          0.3333333333333333 26 0
          0.3333333333333333 26.33333333333333 0
          0.3333333333333333 26.66666666666666 0
          0.3333333333333333 27 0
          0.3333333333333333 27.33333333333333 0
          0.3333333333333333 27.66666666666666 0
          0.3333333333333333 28 0
          0.3333333333333333 28.33333333333333 0
          0.3333333333333333 28.66666666666666 0
          0.3333333333333333 29 0
          0.3333333333333333 29.33333333333333 0
          0.3333333333333333 29.66666666666666 0
          0.3333333333333333 30 0
          0.6666666666666666 0 0
          0.6666666666666666 0.3333333333333333 0
          0.6666666666666666 0.6666666666666666 0
          0.6666666666666666 1 0
          0.6666666666666666 1.333333333333333 0
          0.6666666666666666 1.666666666666667 0
          0.6666666666666666 2 0
          0.6666666666666666 2.333333333333333 0
          0.6666666666666666 2.666666666666667 0
          0.6666666666666666 3 0
          0.6666666666666666 3.333333333333333 0
          0.6666666666666666 3.666666666666667 0
          0.6666666666666666 4 0
          0.6666666666666666 4.333333333333333 0
          0.6666666666666666 4.666666666666666 0
          0.6666666666666666 5 0
          0.6666666666666666 5.333333333333333 0
          0.6666666666666666 5.666666666666666 0
          0.6666666666666666 6 0
          0.6666666666666666 6.333333333333333 0
          0.6666666666666666 6.666666666666666 0
          0.6666666666666666 7 0
          0.6666666666666666 7.333333333333333 0
          0.6666666666666666 7.666666666666666 0
          0.6666666666666666 8 0
          0.6666666666666666 8.333333333333332 0
          0.6666666666666666 8.666666666666666 0
          0.6666666666666666 9 0
          0.6666666666666666 9.333333333333332 0
          0.6666666666666666 9.666666666666666 0
          0.6666666666666666 10 0
          0.6666666666666666 10.33333333333333 0
          0.6666666666666666 10.66666666666667 0
          0.6666666666666666 11 0
          0.6666666666666666 11.33333333333333 0
          0.6666666666666666 11.66666666666667 0
          0.6666666666666666 12 0
          0.6666666666666666 12.33333333333333 0
          0.6666666666666666 12.66666666666667 0
          0.6666666666666666 13 0
          0.6666666666666666 13.33333333333333 0
          0.6666666666666666 13.66666666666667 0
          0.6666666666666666 14 0
          0.6666666666666666 14.33333333333333 0
          0.6666666666666666 14.66666666666667 0
          0.6666666666666666 15 0
          0.6666666666666666 15.33333333333333 0
          0.6666666666666666 15.66666666666667 0
          0.6666666666666666 16 0
          0.6666666666666666 16.33333333333333 0
          0.6666666666666666 16.66666666666666 0
          0.6666666666666666 17 0
          0.6666666666666666 17.33333333333333 0
          0.6666666666666666 17.66666666666666 0
          0.6666666666666666 18 0
          0.6666666666666666 18.33333333333333 0
          0.6666666666666666 18.66666666666666 0
          0.6666666666666666 19 0
          0.6666666666666666 19.33333333333333 0
          0.6666666666666666 19.66666666666666 0
          0.6666666666666666 20 0
          0.6666666666666666 20.33333333333333 0
          0.6666666666666666 20.66666666666666 0
          0.6666666666666666 21 0
          0.6666666666666666 21.33333333333333 0
          0.6666666666666666 21.66666666666666 0
          0.6666666666666666 22 0
          0.6666666666666666 22.33333333333333 0
          0.6666666666666666 22.66666666666666 0
          0.6666666666666666 23 0
          0.6666666666666666 23.33333333333333 0
          0.6666666666666666 23.66666666666666 0
          0.6666666666666666 24 0
          0.6666666666666666 24.33333333333333 0
          0.6666666666666666 24.66666666666666 0
[...]
      <CellData Scalars="density">
        <DataArray type="Float64" Name="density" format="ascii">
          1.000049591064453
          1.000049591064453
          1.000049591064453
          1.000049591064453
          1.000049591064453
          1.000049591064453
          1.000049591064453
          1.000049591064453
          1.000049591064453
          1.000049591064453
          1.000049471855164
          1.000049233436584
          1.00004255771637
          0.9997572898864746
          0.08767321705818176
          0.0001474415621487424
          6.107611989136785e-05
          5.845175473950803e-05
          5.824299660162069e-05
          5.821317608933896e-05
          5.821317608933896e-05
          5.818335193907842e-05
          5.821317608933896e-05
          5.827282075188123e-05
          5.818335193907842e-05
          5.827282075188123e-05
          5.824299660162069e-05
          5.85113994020503e-05
          6.083754124119878e-05
          7.562941027572379e-05
          0.0001373019767925143
          0.0002604085311759263
          0.0002976864343509078
          0.0001903558877529576
          0.0001019028786686249
          6.915796984685585e-05
          6.074807242839597e-05
          5.880962271476164e-05
          5.83324654144235e-05
          5.824299660162069e-05
          5.824299660162069e-05
          5.830264126416296e-05
          5.830264126416296e-05
          5.845175473950803e-05
          5.874997805221938e-05
          5.976393731543794e-05
          6.223918899195269e-05
          6.799490074627101e-05
          7.944666867842898e-05
          9.969602979253978e-05
          0.0001324409386143088
          0.0001758324215188622
          0.0002100684505421668
          0.0001987956056836993
          0.000142789285746403
          9.104755008593202e-05
          6.704058614559472e-05
          5.997269181534648e-05
          5.848157525178976e-05
          5.830264126416296e-05
          5.827282075188123e-05
          5.818335193907842e-05
          5.821317608933896e-05
          5.818335193907842e-05
          5.818335193907842e-05
          5.818335193907842e-05
          5.818335193907842e-05
          5.818335193907842e-05
          5.818335193907842e-05
          5.821317608933896e-05
          5.827282075188123e-05
          5.821317608933896e-05
          5.830264126416296e-05
          6.119540921645239e-05
          0.0002829840232152492
          0.9861845374107361
          1.000036478042603
          1.000049352645874
          1.000049471855164
          1.000049591064453
          1.000049591064453
          1.000049591064453
          1.000049591064453
          1.000049591064453
          1.000049591064453
          1.000049471855164
          1.000049471855164
          1.000049233436584
          1.000045776367188
          1.000009894371033
          1.000049591064453
          1.000049591064453
          1.000049591064453
          1.000049591064453
          1.000049591064453
          1.000049591064453
          1.000049591064453
          1.000049591064453
          1.000049591064453
          1.000049591064453
          1.000049591064453
          1.000049471855164
          1.000047922134399
          0.9999880790710449
          0.8967795968055725
          0.0003340696566738188
          6.459515134338289e-05
          5.85113994020503e-05
          5.824299660162069e-05
          5.821317608933896e-05
          5.821317608933896e-05
          5.827282075188123e-05
          5.818335193907842e-05
          5.827282075188123e-05
          5.821317608933896e-05
          5.821317608933896e-05
          5.824299660162069e-05
          5.83324654144235e-05
          5.892891203984618e-05
          6.152345304144546e-05
          6.957547884667292e-05
          8.153423550538719e-05
          8.502344280714169e-05
          7.592763722641394e-05
          6.575822044396773e-05
          6.06884277658537e-05
          5.901837721467018e-05
          5.845175473950803e-05
          5.830264126416296e-05
          5.824299660162069e-05
          5.824299660162069e-05
          5.830264126416296e-05
          5.824299660162069e-05
          5.839211007696576e-05
          5.863068872713484e-05
          5.922713535255753e-05
          6.06884277658537e-05
          6.387941539287567e-05
          6.9724592322018e-05
          7.959578215377405e-05
          9.42385449889116e-05
          0.0001114758415496908
          0.000121824188681785
          0.0001139809173764661
          9.176328603643924e-05
          7.184197602327913e-05
          6.220936484169215e-05
          5.910784602747299e-05
          5.839211007696576e-05
          5.827282075188123e-05
          5.821317608933896e-05
          5.821317608933896e-05
          5.821317608933896e-05
          5.818335193907842e-05
          5.818335193907842e-05
          5.818335193907842e-05
          5.818335193907842e-05
          5.818335193907842e-05
          5.818335193907842e-05
          5.821317608933896e-05
          5.821317608933896e-05
          5.827282075188123e-05
          5.854121991433203e-05
          7.112624007277191e-05
          0.003740763058885932
          0.9997506737709045
          1.000047445297241
          1.000049471855164
          1.000049591064453
          1.000049591064453
          1.000049591064453
          1.000049591064453
          1.000049591064453
          1.000049591064453
          1.000049591064453
          1.000049471855164
          1.000049471855164
          1.000049233436584
          1.000046610832214
          1.000025033950806
          1.000049591064453
          1.000049591064453
          1.000049591064453
          1.000049591064453
          1.000049591064453
          1.000049591064453
          1.000049591064453
          1.000049591064453
          1.000049591064453
          1.000049591064453
          1.000049471855164
          1.000049591064453
          1.000049114227295
          1.000032544136047
          0.9966237545013428
          0.001289576874114573
          7.446634117513895e-05
          5.901837721467018e-05
          5.830264126416296e-05
          5.821317608933896e-05
          5.821317608933896e-05
          5.821317608933896e-05
          5.821317608933896e-05
          5.827282075188123e-05
          5.818335193907842e-05
          5.821317608933896e-05
          5.827282075188123e-05
          5.830264126416296e-05
          5.845175473950803e-05
          5.895873255212791e-05
          6.024109461577609e-05
          6.191114516695961e-05
          6.25075917923823e-05
          6.152345304144546e-05
          6.000251596560702e-05
          5.889908788958564e-05
          5.848157525178976e-05
          5.836228592670523e-05
          5.830264126416296e-05
          5.824299660162069e-05
          5.827282075188123e-05
          5.83324654144235e-05
          5.824299660162069e-05
          5.839211007696576e-05
          5.86008645768743e-05
          5.901837721467018e-05
          5.988322664052248e-05
          6.179185584187508e-05
          6.495301931863651e-05
          7.014210132183507e-05
          7.726963667664677e-05
          8.4516461356543e-05
          8.755834278417751e-05
          8.290605910588056e-05
          7.315415859920904e-05
          6.468461651820689e-05
          6.021127046551555e-05
          5.872015390195884e-05
          5.830264126416296e-05
          5.824299660162069e-05
          5.827282075188123e-05
          5.827282075188123e-05
          5.821317608933896e-05
          5.818335193907842e-05
          5.818335193907842e-05
          5.818335193907842e-05
          5.818335193907842e-05
          5.818335193907842e-05
          5.818335193907842e-05
          5.818335193907842e-05
          5.821317608933896e-05
          5.824299660162069e-05
          5.994287130306475e-05
          0.00017204497999046
          0.9089840054512024
          1.000026226043701
          1.000049233436584
          1.000049591064453
          1.000049591064453
          1.000049591064453
          1.000049591064453
          1.000049591064453
          1.000049591064453
          1.000049591064453
          1.000049591064453
          1.000049591064453
          1.000049471855164
          1.000049233436584
          1.000047206878662
          1.00003457069397
          1.000049591064453
          1.000049591064453
          1.000049591064453
          1.000049591064453
          1.000049591064453
          1.000049591064453
          1.000049591064453
          1.000049591064453
          1.000049591064453
          1.000049591064453
          1.000049591064453
          1.000049591064453
          1.000049352645874
          1.000043988227844
          0.9995988011360168
          0.01385744940489531
          0.0001061674702214077
          6.024109461577609e-05
          5.83324654144235e-05
          5.827282075188123e-05
          5.827282075188123e-05
          5.821317608933896e-05
          5.818335193907842e-05
          5.818335193907842e-05
          5.827282075188123e-05
          5.827282075188123e-05
          5.821317608933896e-05
          5.827282075188123e-05
          5.830264126416296e-05
          5.839211007696576e-05
          5.874997805221938e-05
          5.901837721467018e-05
          5.913766653975472e-05
          5.910784602747299e-05
          5.877979856450111e-05
          5.86008645768743e-05
          5.839211007696576e-05
          5.836228592670523e-05
          5.824299660162069e-05
          5.818335193907842e-05
          5.818335193907842e-05
          5.824299660162069e-05
          5.842193058924749e-05
          5.839211007696576e-05
          5.854121991433203e-05
          5.880962271476164e-05
          5.949553451500833e-05
          6.080771709093824e-05
          6.274617044255137e-05
          6.575822044396773e-05
          6.942636537132785e-05
          7.279629062395543e-05
          7.354185072472319e-05
          7.079819624777883e-05
          6.587750976905227e-05
          6.167256651679054e-05
          5.937624518992379e-05
          5.848157525178976e-05
          5.836228592670523e-05
          5.827282075188123e-05
          5.827282075188123e-05
          5.821317608933896e-05
          5.821317608933896e-05
          5.818335193907842e-05
          5.818335193907842e-05
          5.818335193907842e-05
          5.818335193907842e-05
          5.818335193907842e-05
          5.821317608933896e-05
          5.821317608933896e-05
          5.824299660162069e-05
          5.869033338967711e-05
          7.604692655149847e-05
          0.007298059295862913
          0.9998036623001099
          1.000047326087952
          1.000049471855164
          1.000049591064453
          1.000049591064453
          1.000049591064453
          1.000049591064453
          1.000049591064453
          1.000049591064453
          1.000049591064453
          1.000049591064453
          1.000049471855164
          1.000049591064453
          1.000049233436584
          1.00004768371582
          1.000040769577026
          1.000049591064453
          1.000049591064453
          1.000049591064453
          1.000049591064453
          1.000049591064453
          1.000049591064453
          1.000049591064453
          1.000049591064453
          1.000049591064453
          1.000049591064453
          1.000049591064453
          1.000049471855164
          1.000049471855164
          1.000047445297241
          0.99993497133255
          0.440526008605957
          0.0002281407796544954
          6.44162209937349e-05
          5.877979856450111e-05
          5.824299660162069e-05
          5.827282075188123e-05
          5.827282075188123e-05
          5.821317608933896e-05
          5.827282075188123e-05
          5.827282075188123e-05
          5.821317608933896e-05
          5.821317608933896e-05
          5.818335193907842e-05
          5.830264126416296e-05
          5.830264126416296e-05
          5.839211007696576e-05
          5.845175473950803e-05
          5.848157525178976e-05
          5.86008645768743e-05
          5.842193058924749e-05
          5.839211007696576e-05
          5.830264126416296e-05
          5.830264126416296e-05
          5.83324654144235e-05
          5.830264126416296e-05
          5.818335193907842e-05
          5.830264126416296e-05
          5.830264126416296e-05
          5.839211007696576e-05
          5.857104406459257e-05
          5.883944322704338e-05
          5.943588985246606e-05
          6.030073927831836e-05
          6.179185584187508e-05
          6.370048504322767e-05
          6.59073339193128e-05
          6.751774344593287e-05
          6.757738447049633e-05
          6.560911424458027e-05
          6.271634629229084e-05
          6.027091512805782e-05
          5.895873255212791e-05
          5.836228592670523e-05
          5.824299660162069e-05
          5.827282075188123e-05
          5.821317608933896e-05
          5.821317608933896e-05
          5.821317608933896e-05
          5.818335193907842e-05
          5.818335193907842e-05
          5.818335193907842e-05
          5.818335193907842e-05
          5.821317608933896e-05
          5.821317608933896e-05
          5.827282075188123e-05
          5.839211007696576e-05
          6.370048504322767e-05
          0.0005319407791830599
          0.9955726265907288
          1.00003707408905
          1.000049352645874
          1.000049591064453
          1.000049591064453
          1.000049591064453
          1.000049591064453
          1.000049591064453
          1.000049591064453
          1.000049591064453
          1.000049471855164
          1.000049591064453
          1.000049591064453
          1.000049471855164
          1.000049114227295
          1.000048041343689
          1.000044822692871
          1.000049591064453
          1.000049591064453
          1.000049591064453
          1.000049591064453
          1.000049591064453
          1.000049591064453
          1.000049591064453
          1.000049591064453
          1.000049591064453
          1.000049591064453
          1.000049591064453
          1.000049471855164
          1.000049591064453
          1.000048637390137
          1.000012993812561
          0.984204888343811
          0.0009550002869218588
          8.060973777901381e-05
          5.994287130306475e-05
          5.848157525178976e-05
          5.830264126416296e-05
          5.827282075188123e-05
          5.818335193907842e-05
          5.821317608933896e-05
          5.827282075188123e-05
          5.827282075188123e-05
          5.827282075188123e-05
          5.827282075188123e-05
          5.824299660162069e-05
          5.824299660162069e-05
          5.830264126416296e-05
          5.830264126416296e-05
          5.836228592670523e-05
          5.836228592670523e-05
          5.836228592670523e-05
          5.836228592670523e-05
          5.830264126416296e-05
          5.824299660162069e-05
          5.830264126416296e-05
          5.824299660162069e-05
          5.836228592670523e-05
          5.836228592670523e-05
          5.845175473950803e-05
          5.848157525178976e-05
          5.869033338967711e-05
          5.901837721467018e-05
          5.952535866526887e-05
          6.027091512805782e-05
          6.143398786662146e-05
          6.283563561737537e-05
          6.426710751838982e-05
          6.519159796880558e-05
          6.486355414381251e-05
          6.328296876745299e-05
          6.110594404162839e-05
          5.94657140027266e-05
          5.869033338967711e-05
          5.836228592670523e-05
          5.827282075188123e-05
          5.827282075188123e-05
          5.827282075188123e-05
          5.821317608933896e-05
          5.821317608933896e-05
          5.821317608933896e-05
          5.821317608933896e-05
          5.821317608933896e-05
          5.821317608933896e-05
          5.821317608933896e-05
          5.827282075188123e-05
          5.836228592670523e-05
          6.116558506619185e-05
          0.0002090843045152724
          0.8356202840805054
          1.000000596046448
          1.000048518180847
          1.000049471855164
          1.000049591064453
          1.000049591064453
          1.000049591064453
          1.000049591064453
          1.000049591064453
          1.000049591064453
          1.000049471855164
          1.000049591064453
          1.000049471855164
          1.000049471855164
          1.000049352645874
          1.000048995018005
          1.000048398971558
          1.000047087669373
          1.000049591064453
          1.000049591064453
          1.000049591064453
          1.000049591064453
          1.000049591064453
          1.000049591064453
          1.000049591064453
          1.000049591064453
          1.000049591064453
          1.000049591064453
          1.000049591064453
          1.000049591064453
          1.000049471855164
          1.000049233436584
          1.000036835670471
          0.9991269111633301
          0.01597158424556255
          0.0001498571800766513
          6.444603786803782e-05
          5.901837721467018e-05
          5.839211007696576e-05
          5.824299660162069e-05
          5.827282075188123e-05
          5.824299660162069e-05
          5.821317608933896e-05
          5.827282075188123e-05
          5.821317608933896e-05
          5.827282075188123e-05
          5.827282075188123e-05
          5.824299660162069e-05
          5.830264126416296e-05
          5.830264126416296e-05
          5.824299660162069e-05
          5.830264126416296e-05
          5.836228592670523e-05
          5.836228592670523e-05
          5.836228592670523e-05
          5.836228592670523e-05
          5.830264126416296e-05
          5.830264126416296e-05
          5.83324654144235e-05
          5.845175473950803e-05
          5.854121991433203e-05
          5.863068872713484e-05
          5.892891203984618e-05
          5.934642467764206e-05
          5.979375782771967e-05
          6.062878310331143e-05
          6.167256651679054e-05
          6.289527664193884e-05
          6.396888056769967e-05
          6.435657269321382e-05
          6.35513715678826e-05
          6.185149686643854e-05
          6.012180529069155e-05
          5.904820136493072e-05
          5.848157525178976e-05
          5.830264126416296e-05
          5.824299660162069e-05
          5.83324654144235e-05
          5.821317608933896e-05
          5.821317608933896e-05
          5.818335193907842e-05
          5.821317608933896e-05
          5.821317608933896e-05
          5.827282075188123e-05
          5.821317608933896e-05
          5.821317608933896e-05
          5.836228592670523e-05
          6.074807242839597e-05
          0.0001564777339808643
          0.2799519002437592
          0.999919593334198
          1.000046491622925
          1.000049352645874
          1.000049591064453
          1.000049591064453
          1.000049471855164
          1.000049591064453
          1.000049591064453
          1.000049471855164
          1.000049591064453
          1.000049471855164
          1.000049591064453
          1.000049471855164
          1.000049471855164
          1.000049233436584
          1.000049114227295
          1.000048875808716
          1.000048398971558
          1.000049591064453
          1.000049591064453
          1.000049591064453
          1.000049591064453
          1.000049591064453
          1.000049591064453
          1.000049591064453
          1.000049591064453
          1.000049591064453
          1.000049591064453
          1.000049591064453
          1.000049591064453
          1.000049591064453
          1.000049352645874
          1.00004506111145
          0.9998956322669983
          0.7345257997512817
          0.0005535022937692702
          8.135529787978157e-05
          6.074807242839597e-05
          5.869033338967711e-05
          5.836228592670523e-05