<?xml version="1.0"?>
<VTKFile type="UnstructuredGrid" version="0.1" byte_order="LittleEndian">
  <UnstructuredGrid>
    <Piece NumberOfPoints="16471" NumberOfCells="16200">
      <Points>
        <DataArray type="Float64" NumberOfComponents="3" format="ascii">
          0 0 0
          0 0.3333333333333333 0
          0 0.6666666666666666 0
          0 1 0
          0 1.333333333333333 0
          0 1.666666666666667 0
          0 2 0
          0 2.333333333333333 0
          0 2.666666666666667 0
          0 3 0
          0 3.333333333333333 0
          0 3.666666666666667 0
          0 4 0
          0 4.333333333333333 0
          0 4.666666666666666 0
          0 5 0
          0 5.333333333333333 0
          0 5.666666666666666 0
          0 6 0
          0 6.333333333333333 0
          0 6.666666666666666 0
          0 7 0
          0 7.333333333333333 0
          0 7.666666666666666 0
          0 8 0
          0 8.333333333333332 0
          0 8.666666666666666 0
          0 9 0
          0 9.333333333333332 0
          0 9.666666666666666 0
          0 10 0
          0 10.33333333333333 0
          0 10.66666666666667 0
          0 11 0
          0 11.33333333333333 0
          0 11.66666666666667 0
          0 12 0
          0 12.33333333333333 0
          0 12.66666666666667 0
          0 13 0
          0 13.33333333333333 0
          0 13.66666666666667 0
          0 14 0
          0 14.33333333333333 0
          0 14.66666666666667 0
          0 15 0
          0 15.33333333333333 0
          0 15.66666666666667 0
          0 16 0
          0 16.33333333333333 0
          0 16.66666666666666 0
          0 17 0
          0 17.33333333333333 0
          0 17.66666666666666 0
          0 18 0
          0 18.33333333333333 0
          0 18.66666666666666 0
          0 19 0
          0 19.33333333333333 0
          0 19.66666666666666 0
          0 20 0
          0 20.33333333333333 0
          0 20.66666666666666 0
          0 21 0
          0 21.33333333333333 0
          0 21.66666666666666 0
          0 22 0
          0 22.33333333333333 0
          0 22.66666666666666 0
          0 23 0
          0 23.33333333333333 0
          0 23.66666666666666 0
          0 24 0
          0 24.33333333333333 0
          0 24.66666666666666 0
          0 25 0
          0 25.33333333333333 0
          0 25.66666666666666 0
          0 26 0
          0 26.33333333333333 0
          0 26.66666666666666 0
          0 27 0
          0 27.33333333333333 0
          0 27.66666666666666 0
          0 28 0
          0 28.33333333333333 0
          0 28.66666666666666 0
          0 29 0
          0 29.33333333333333 0
          0 29.66666666666666 0
          0 30 0
          0.3333333333333333 0 0
          0.3333333333333333 0.3333333333333333 0
          0.3333333333333333 0.6666666666666666 0
          0.3333333333333333 1 0
          0.3333333333333333 1.333333333333333 0
          0.3333333333333333 1.666666666666667 0
          0.3333333333333333 2 0
          0.3333333333333333 2.333333333333333 0
          0.3333333333333333 2.666666666666667 0
          0.3333333333333333 3 0
          0.3333333333333333 3.333333333333333 0
          0.3333333333333333 3.666666666666667 0
          0.3333333333333333 4 0
          0.3333333333333333 4.333333333333333 0
          0.3333333333333333 4.666666666666666 0
          0.3333333333333333 5 0
          0.3333333333333333 5.333333333333333 0
          0.3333333333333333 5.666666666666666 0
          0.3333333333333333 6 0
          0.3333333333333333 6.333333333333333 0
          0.3333333333333333 6.666666666666666 0
          0.3333333333333333 7 0
          0.3333333333333333 7.333333333333333 0
          0.3333333333333333 7.666666666666666 0
          0.3333333333333333 8 0
          0.3333333333333333 8.333333333333332 0
          0.3333333333333333 8.666666666666666 0
          0.3333333333333333 9 0
          0.3333333333333333 9.333333333333332 0
          0.3333333333333333 9.666666666666666 0
          0.3333333333333333 10 0
          0.3333333333333333 10.33333333333333 0
          0.3333333333333333 10.66666666666667 0
          0.3333333333333333 11 0
          0.3333333333333333 11.33333333333333 0
          0.3333333333333333 11.66666666666667 0
          0.3333333333333333 12 0
          0.3333333333333333 12.33333333333333 0
          0.3333333333333333 12.66666666666667 0
          0.3333333333333333 13 0
          0.3333333333333333 13.33333333333333 0
          0.3333333333333333 13.66666666666667 0
          0.3333333333333333 14 0
          0.3333333333333333 14.33333333333333 0
          0.3333333333333333 14.66666666666667 0
          0.3333333333333333 15 0
          0.3333333333333333 15.33333333333333 0
          0.3333333333333333 15.66666666666667 0
          0.3333333333333333 16 0
          0.3333333333333333 16.33333333333333 0
          0.3333333333333333 16.66666666666666 0
          0.3333333333333333 17 0
          0.3333333333333333 17.33333333333333 0
          0.3333333333333333 17.66666666666666 0
          0.3333333333333333 18 0
          0.3333333333333333 18.33333333333333 0
          0.3333333333333333 18.66666666666666 0
          0.3333333333333333 19 0
          0.3333333333333333 19.33333333333333 0
          0.3333333333333333 19.66666666666666 0
          0.3333333333333333 20 0
          0.3333333333333333 20.33333333333333 0
          0.3333333333333333 20.66666666666666 0
          0.3333333333333333 21 0
          0.3333333333333333 21.33333333333333 0
          0.3333333333333333 21.66666666666666 0
          0.3333333333333333 22 0
          0.3333333333333333 22.33333333333333 0
          0.3333333333333333 22.66666666666666 0
          0.3333333333333333 23 0
          0.3333333333333333 23.33333333333333 0
          0.3333333333333333 23.66666666666666 0
          0.3333333333333333 24 0
          0.3333333333333333 24.33333333333333 0
          0.3333333333333333 24.66666666666666 0
          0.3333333333333333 25 0
          0.3333333333333333 25.33333333333333 0
          0.3333333333333333 25.66666666666666 0
          0.3333333333333333 26 0
          0.3333333333333333 26.33333333333333 0
          0.3333333333333333 26.66666666666666 0
          0.3333333333333333 27 0
          0.3333333333333333 27.33333333333333 0
          0.3333333333333333 27.66666666666666 0
          0.3333333333333333 28 0
          0.3333333333333333 28.33333333333333 0
          0.3333333333333333 28.66666666666666 0
          0.3333333333333333 29 0
          0.3333333333333333 29.33333333333333 0
          0.3333333333333333 29.66666666666666 0
          0.3333333333333333 30 0
          0.6666666666666666 0 0
          0.6666666666666666 0.3333333333333333 0
          0.6666666666666666 0.6666666666666666 0
          0.6666666666666666 1 0
          0.6666666666666666 1.333333333333333 0
          0.6666666666666666 1.666666666666667 0
          0.6666666666666666 2 0
          0.6666666666666666 2.333333333333333 0
          0.6666666666666666 2.666666666666667 0
          0.6666666666666666 3 0
          0.6666666666666666 3.333333333333333 0
          0.6666666666666666 3.666666666666667 0
          0.6666666666666666 4 0
          0.6666666666666666 4.333333333333333 0
          0.6666666666666666 4.666666666666666 0
          0.6666666666666666 5 0
          0.6666666666666666 5.333333333333333 0
          0.6666666666666666 5.666666666666666 0
          0.6666666666666666 6 0
          0.6666666666666666 6.333333333333333 0
          0.6666666666666666 6.666666666666666 0
          0.6666666666666666 7 0
          0.6666666666666666 7.333333333333333 0
          0.6666666666666666 7.666666666666666 0
          0.6666666666666666 8 0
          0.6666666666666666 8.333333333333332 0
          0.6666666666666666 8.666666666666666 0
          0.6666666666666666 9 0
          0.6666666666666666 9.333333333333332 0
          0.6666666666666666 9.666666666666666 0
          0.6666666666666666 10 0
          0.6666666666666666 10.33333333333333 0
          0.6666666666666666 10.66666666666667 0
          0.6666666666666666 11 0
          0.6666666666666666 11.33333333333333 0
          0.6666666666666666 11.66666666666667 0
          0.6666666666666666 12 0
          0.6666666666666666 12.33333333333333 0
          0.6666666666666666 12.66666666666667 0
          0.6666666666666666 13 0
          0.6666666666666666 13.33333333333333 0
          0.6666666666666666 13.66666666666667 0
          0.6666666666666666 14 0
          0.6666666666666666 14.33333333333333 0
          0.6666666666666666 14.66666666666667 0
          0.6666666666666666 15 0
          0.6666666666666666 15.33333333333333 0
          0.6666666666666666 15.66666666666667 0
          0.6666666666666666 16 0
          0.6666666666666666 16.33333333333333 0
          0.6666666666666666 16.66666666666666 0
          0.6666666666666666 17 0
          0.6666666666666666 17.33333333333333 0
          0.6666666666666666 17.66666666666666 0
          0.6666666666666666 18 0
          0.6666666666666666 18.33333333333333 0
          0.6666666666666666 18.66666666666666 0
          0.6666666666666666 19 0
          0.6666666666666666 19.33333333333333 0
          0.6666666666666666 19.66666666666666 0
          0.6666666666666666 20 0
          0.6666666666666666 20.33333333333333 0
          0.6666666666666666 20.66666666666666 0
          0.6666666666666666 21 0
          0.6666666666666666 21.33333333333333 0
          0.6666666666666666 21.66666666666666 0
          0.6666666666666666 22 0
          0.6666666666666666 22.33333333333333 0
          0.6666666666666666 22.66666666666666 0
          0.6666666666666666 23 0
          0.6666666666666666 23.33333333333333 0
          0.6666666666666666 23.66666666666666 0
          0.6666666666666666 24 0
          0.6666666666666666 24.33333333333333 0
          0.6666666666666666 24.66666666666666 0
[...]
      <CellData Scalars="density">
        <DataArray type="Float64" Name="density" format="ascii">
          1.001410603523254
          1.001410603523254
          1.001410603523254
          1.001410603523254
          1.001410603523254
          1.001410603523254
          1.001410603523254
          1.001410603523254
          1.001410603523254
          1.001410245895386
          1.001393437385559
          1.000574111938477
          0.9644230604171753
          0.3747590482234955
          0.2410323470830917
          0.1948931068181992
          0.167691171169281
          0.1596914529800415
          0.1574992537498474
          0.1547946780920029
          0.1512757539749146
          0.1470481157302856
          0.1425481289625168
          0.1399702727794647
          0.1389990895986557
          0.1384622007608414
          0.1379680335521698
          0.1377675533294678
          0.1379447877407074
          0.1377157419919968
          0.1375624388456345
          0.1371665149927139
          0.1370207220315933
          0.1374683678150177
          0.1379174590110779
          0.138368159532547
          0.1388866007328033
          0.1394530087709427
          0.1396253556013107
          0.1396534591913223
          0.1396705508232117
          0.1396875530481339
          0.1397045254707336
          0.1397215574979782
          0.1397162079811096
          0.1393523514270782
          0.1389218717813492
          0.1383508443832397
          0.1378363966941833
          0.1373572051525116
          0.1368798166513443
          0.1364040821790695
          0.1359300315380096
          0.1357273608446121
          0.135991096496582
          0.1365235596895218
          0.1383582949638367
          0.1411258429288864
          0.1440832763910294
          0.1472705453634262
          0.15182726085186
          0.1577037274837494
          0.1630621403455734
          0.1683411449193954
          0.175096869468689
          0.1846220791339874
          0.1971474438905716
          0.2135132104158401
          0.2426303178071976
          0.2791032493114471
          0.3209809064865112
          0.3701174855232239
          0.4237916469573975
          0.4828564822673798
          0.5524683594703674
          0.6333128809928894
          0.7154362797737122
          0.791240394115448
          0.8552957773208618
          0.9070788025856018
          0.947737455368042
          0.9794833064079285
          0.9932093024253845
          0.9980936050415039
          1.000027775764465
          1.000823974609375
          1.00113844871521
          1.001264572143555
          1.001323699951172
          1.001354455947876
          1.001410603523254
          1.001410603523254
          1.001410603523254
          1.001410603523254
          1.001410603523254
          1.001410603523254
          1.001410603523254
          1.001410603523254
          1.001410603523254
          1.001410484313965
          1.001399755477905
          1.000867009162903
          0.9790191054344177
          0.4166761934757233
          0.2497746050357819
          0.2008216232061386
          0.1713741272687912
          0.1620589345693588
          0.1597522646188736
          0.1569789052009583
          0.1540003269910812
          0.1498901098966599
          0.1452789157629013
          0.1420659869909286
          0.1410613656044006
          0.140540674328804
          0.1400204449892044
          0.1399815827608109
          0.1399683207273483
          0.1397359371185303
          0.1396433860063553
          0.1392136961221695
          0.1390117704868317
          0.1394580751657486
          0.1399137228727341
          0.1403710395097733
          0.1408552825450897
          0.1414417624473572
          0.1418984681367874
          0.1419371962547302
          0.1419545412063599
          0.1419718265533447
          0.1419890969991684
          0.1420064121484756
          0.1420237272977829
          0.1416262835264206
          0.1411375105381012
          0.1405573636293411
          0.1399796009063721
          0.139457955956459
          0.1389704048633575
          0.1384872198104858
          0.1380057781934738
          0.1375260800123215
          0.1377482116222382
          0.1384761482477188
          0.1404280513525009
          0.1432985365390778
          0.1463095992803574
          0.1495296210050583
          0.1544703841209412
          0.1611573845148087
          0.1669790595769882
          0.1725106239318848
          0.1800790280103683
          0.1903671473264694
          0.2031445652246475
          0.2210870534181595
          0.2528242468833923
          0.2914300560951233
          0.3348506689071655
          0.3854034245014191
          0.440290242433548
          0.5011633634567261
          0.5713990926742554
          0.6518677473068237
          0.7315791249275208
          0.8077882528305054
          0.8669781088829041
          0.9142146110534668
          0.9513614773750305
          0.9804455041885376
          0.9935030937194824
          0.9982014298439026
          1.000056982040405
          1.000833511352539
          1.001130700111389
          1.001259088516235
          1.001318216323853
          1.0013507604599
          1.001410603523254
          1.001410603523254
          1.001410603523254
          1.001410603523254
          1.001410603523254
          1.001410603523254
          1.001410603523254
          1.001410603523254
          1.001410603523254
          1.001410484313965
          1.00140392780304
          1.001054763793945
          0.9874503016471863
          0.4898965358734131
          0.2587682902812958
          0.2071453183889389
          0.1751434206962585
          0.1644605547189713
          0.1620021760463715
          0.1591934561729431
          0.1566428691148758
          0.1527594029903412
          0.1480429470539093
          0.1445242017507553
          0.143128514289856
          0.1426555216312408
          0.14214988052845
          0.1421901434659958
          0.1419921368360519
          0.1418929249048233
          0.1417439579963684
          0.1413787305355072
          0.1411693394184113
          0.1414768546819687
          0.1419392675161362
          0.1424282044172287
          0.142930194735527
          0.1435532122850418
          0.1441686600446701
          0.1443405151367188
          0.1443274915218353
          0.1443146020174026
          0.144311398267746
          0.1443290114402771
          0.1442920416593552
          0.1439856439828873
          0.143389031291008
          0.1427994966506958
          0.1422124952077866
          0.1416278630495071
          0.1410990506410599
          0.1406029611825943
          0.140113964676857
          0.1396267414093018
          0.1395284384489059
          0.1402855962514877
          0.1425292938947678
          0.1454649865627289
          0.148558720946312
          0.1518232226371765
          0.1574161201715469
          0.1644324213266373
          0.1710165441036224
          0.1775782704353333
          0.1859402656555176
          0.1966355443000793
          0.2093808948993683
          0.2294437438249588
          0.2640863656997681
          0.3053271174430847
          0.3498438000679016
          0.4009857475757599
          0.4577523171901703
          0.519511342048645
          0.590103805065155
          0.6695036292076111
          0.7519156336784363
          0.8232719302177429
          0.8775838017463684
          0.9207710027694702
          0.9547104835510254
          0.9813306927680969
          0.9937776327133179
          0.9982851147651672
          1.000084638595581
          1.000839710235596
          1.0011225938797
          1.001253366470337
          1.001312375068665
          1.001346707344055
          1.001410603523254
          1.001410603523254
          1.001410603523254
          1.001410603523254
          1.001410603523254
          1.001410603523254
          1.001410603523254
          1.001410603523254
          1.001410603523254
          1.001410484313965
          1.001406311988831
          1.001176714897156
          0.99262934923172
          0.5839047431945801
          0.2680329382419586
          0.213462308049202
          0.1790769994258881
          0.1668967604637146
          0.1642864793539047
          0.1614384800195694
          0.1588252633810043
          0.155486598610878
          0.1508595198392868
          0.1470717936754227
          0.1454185247421265
          0.144753560423851
          0.1442801654338837
          0.1442330181598663
          0.1440623700618744
          0.144048273563385
          0.1438764929771423
          0.1436010152101517
          0.1433397829532623
          0.1435808837413788
          0.1441198736429214
          0.1446278244256973
          0.1451392471790314
          0.1457346826791763
          0.1463910043239594
          0.1467193812131882
          0.1468390822410583
          0.1468259990215302
          0.1468127369880676
          0.1467995941638947
          0.1466177552938461
          0.1463922709226608
          0.1458080857992172
          0.1450777947902679
          0.1444812715053558
          0.1438872516155243
          0.143295630812645
          0.1427597403526306
          0.1422577500343323
          0.1417600214481354
          0.1413321048021317
          0.1421190351247787
          0.1445875465869904
          0.1476095616817474
          0.1508423388004303
          0.1542383432388306
          0.1604176312685013
          0.1675722151994705
          0.1746502816677094
          0.1828583925962448
          0.1919205337762833
          0.203556627035141
          0.2166876643896103
          0.2400074303150177
          0.276333212852478
          0.319546639919281
          0.3653593957424164
          0.4175232350826263
          0.4758019745349884
          0.5378109812736511
          0.6087763905525208
          0.6866140365600586
          0.77137291431427
          0.8369413614273071
          0.887320876121521
          0.9267929196357727
          0.9577282071113586
          0.9821730852127075
          0.9940241575241089
          0.9983546137809753
          1.000111818313599
          1.000844597816467
          1.001112937927246
          1.001247406005859
          1.001305937767029
          1.001342415809631
          1.001410603523254
          1.001410603523254
          1.001410603523254
          1.001410603523254
          1.001410603523254
          1.001410603523254
          1.001410603523254
          1.001410603523254
          1.001410603523254
          1.001410603523254
          1.001407861709595
          1.001256465911865
          0.9958552122116089
          0.6911259889602661
          0.2780461013317108
          0.2203176617622375
          0.1830936819314957
          0.1693677455186844
          0.1665990948677063
          0.1636918932199478
          0.1610005497932434
          0.1580776274204254
          0.1537441462278366
          0.1498821973800659
          0.1477422714233398
          0.1468826979398727
          0.1464531719684601
          0.1462493538856506
          0.1462385058403015
          0.1462298184633255
          0.1460870802402496
          0.1458573341369629
          0.1456211060285568
          0.1457116901874542
          0.1463237702846527
          0.1468561738729477
          0.1473974883556366
          0.1479604989290237
          0.1486074328422546
          0.1491004973649979
          0.149315133690834
          0.149381160736084
          0.1493677794933319
          0.1492880880832672
          0.1490584462881088
          0.1488292515277863
          0.1483326703310013
          0.147399052977562
          0.1467865258455276
          0.1461830139160156
          0.1455818861722946
          0.144983321428299
          0.1444402039051056
          0.1439323127269745
          0.1434261500835419
          0.1439728438854218
          0.1465213745832443
          0.1497858613729477
          0.1532430499792099
          0.1568343490362167
          0.163474977016449
          0.1707614958286285
          0.1784680783748627
          0.1883549988269806
          0.1981910020112991
          0.2106948792934418
          0.2249606847763062
          0.2510431110858917
          0.28901007771492
          0.334161102771759
          0.3819997906684875
          0.4341947734355927
          0.4939340651035309
          0.5560749769210815
          0.6271375417709351
          0.709273636341095
          0.7895727753639221
          0.8494693636894226
          0.8961232900619507
          0.9322884678840637
          0.9604046940803528
          0.9830073714256287
          0.9942113757133484
          0.9984225630760193
          1.000138640403748
          1.00083863735199
          1.001102685928345
          1.001238942146301
          1.001299381256104
          1.001337766647339
          1.001410603523254
          1.001410603523254
          1.001410603523254
          1.001410603523254
          1.001410603523254
          1.001410603523254
          1.001410603523254
          1.001410603523254
          1.001410603523254
          1.001410603523254
          1.001408934593201
          1.001314401626587
          0.9978111982345581
          0.7915616631507874
          0.2926667630672455
          0.2274040728807449
          0.1871943771839142
          0.1718446165323257
          0.1689069122076035
          0.1659741550683975
          0.1631984114646912
          0.1603119075298309
          0.1566901057958603
          0.1528014987707138
          0.1503177434206009
          0.1490432024002075
          0.1487129181623459
          0.1483541876077652
          0.1483950316905975
          0.1484358608722687
          0.1483443826436996
          0.1481319516897202
          0.1479559540748596
          0.1478741765022278
          0.1484954655170441
          0.1491038352251053
          0.1496734619140625
          0.150266095995903
          0.1508731842041016
          0.1515443027019501
          0.1517540365457535
          0.1519641280174255
          0.1519702821969986
          0.151773139834404
          0.1515397280454636
          0.1513067036867142
          0.1509657055139542
          0.1499121785163879
          0.1492056399583817
          0.1485155075788498
          0.1479048132896423
          0.1472966372966766
          0.1466909646987915
          0.146140530705452
          0.1456266492605209
          0.145802304148674
          0.1484811305999756
          0.1519606858491898
          0.1557909250259399
          0.1597448438405991
          0.1665889173746109
          0.1740827262401581
          0.1829330176115036
          0.1933674216270447
          0.204596608877182
          0.2180524319410324
          0.2339679747819901
          0.2628296613693237
          0.3025462627410889
          0.3498152792453766
          0.3990940451622009
          0.451498806476593
          0.5120728611946106
          0.5743328928947449
          0.6450251936912537
          0.7311983704566956
          0.8054472804069519
          0.8610658645629883
          0.9042767286300659
          0.9372268319129944
          0.9627760648727417
          0.9836617112159729
          0.9943904876708984
          0.9984888434410095
          1.000164866447449
          1.000828623771667
          1.001092076301575
          1.001228332519531
          1.00129234790802
          1.001332998275757
          1.001410603523254
          1.001410603523254
          1.001410603523254
          1.001410603523254
          1.001410603523254
          1.001410603523254
          1.001410603523254
          1.001410603523254
          1.001410603523254
          1.001410603523254
          1.001409530639648
          1.001350998878479
          0.9990198016166687
          0.8651093244552612
          0.3098819255828857
          0.2346821874380112
          0.1912577301263809
          0.1742455810308456
          0.1714268028736115
          0.1682871729135513
          0.1654256135225296
          0.1625006794929504
          0.1594413220882416
          0.1557772606611252
          0.1529760509729385
          0.1512285768985748
          0.1510220021009445
          0.1505420058965683
          0.1505834013223648
          0.1507123410701752
          0.1506289690732956
          0.1504987776279449
          0.1503283232450485
          0.1501789093017578
          0.1506993472576141
          0.1513544023036957
          0.1520131230354309
          0.1526221632957458
          0.1532352268695831
          0.153875470161438
          0.1542582213878632
          0.1544717103242874
          0.154577374458313
          0.1543342620134354
          0.1540914922952652
          0.1538490355014801
          0.1536070108413696
          0.152727797627449
          0.1517495512962341
          0.1510343998670578
          0.1503226011991501
          0.1496469080448151
          0.1490316092967987
          0.1484187692403793
          0.1477719843387604
          0.1477756202220917
          0.1504077464342117
          0.1542053818702698
          0.158334493637085
          0.1627070605754852
          0.1698209792375565
          0.1775493025779724
          0.1873652786016464
          0.1983898431062698
          0.2111722230911255
          0.2256313115358353
          0.2432735115289688
          0.2752078175544739
          0.3172055780887604
          0.3658678233623505
          0.4164190888404846
          0.4689629077911377
          0.5301874876022339
          0.5922206044197083
          0.6697188019752502
          0.7521432638168335
          0.8200421929359436
          0.8718293309211731
          0.911761999130249
          0.9415900707244873
          0.9648916721343994
          0.984297513961792
          0.9945609569549561
          0.9985536336898804
          1.000192284584045
          1.000816464424133
          1.001081109046936
          1.001217007637024
          1.001284956932068
          1.001327633857727
          1.001410603523254
          1.001410603523254
          1.001410603523254
          1.001410603523254
          1.001410603523254
          1.001410603523254
          1.001410603523254
          1.001410603523254
          1.001410603523254
          1.001410603523254
          1.001409888267517
          1.001373529434204
          0.9998093247413635
          0.9197518229484558
          0.3292947709560394
          0.2416742593050003
          0.19635109603405
          0.176678791642189
          0.173993319272995
          0.1706311851739883
          0.1676821410655975
          0.1647185683250427
          0.1618800014257431
          0.1587660014629364
          0.1556808948516846
          0.1535186916589737
          0.1533624082803726
          0.1527888029813766
          0.1528039425611496
          0.1530352383852005
          0.1528961062431335
          0.1528913378715515
          0.1527092903852463
          0.1525910943746567
          0.1529588550329208
          0.1536424905061722
          0.1543471217155457
          0.1550149470567703
          0.1556373983621597
          0.1562623679637909
          0.1567907929420471
          0.1570201963186264
          0.1570552587509155
          0.156940221786499
          0.1566933393478394
          0.1564468592405319
          0.1562007814645767
          0.1556746512651443
          0.1543365269899368
          0.1536092311143875
          0.152885377407074
          0.1521648466587067
          0.1514477878808975
          0.1507154256105423
          0.1499748378992081
          0.1500210016965866
          0.1523765176534653
          0.1564096808433533
          0.1608410626649857
          0.1657555550336838
          0.1732066720724106
          0.1810810267925262
          0.1918968856334686